
Host: sophon

Timers On : Sat Feb  4 17:10:33 2023
Timers Off: Sat Feb  4 17:15:17 2023

Wall Time:      284.42 seconds

                                                       Time (seconds)
Module                                       User      System        Wall        Calls
DFH: sparsity prep                  :      0.017u      0.033s      0.139w      3 calls
Libint2ERI::Libint2ERI              :      0.000u      0.017s      0.139w      9 calls
DFH: initialize()                   :      0.083u      0.000s      0.201w      3 calls
DFH: AO Construction                :      0.033u      0.000s      0.022w      3 calls
DFH: AO-Met. Contraction            :      0.000u      0.000s      0.002w      3 calls
HF: Form core H                     :      0.000u      0.000s      0.005w      3 calls
HF: Form S/X                        :      0.000u      0.000s      0.000w      3 calls
HF: Guess                           :      0.200u      0.017s      0.218w      3 calls
SAD Guess                           :      0.183u      0.017s      0.213w      3 calls
HF: Form G                          :      0.017u      0.000s      0.006w     27 calls
JK: D                               :      0.000u      0.000s      0.000w     27 calls
JK: USO2AO                          :      0.000u      0.000s      0.001w     27 calls
JK: JK                              :      0.017u      0.000s      0.004w     27 calls
DFH: compute_JK()                   :      0.017u      0.000s      0.004w     27 calls
DFH: Grabbing AOs                   :      0.000u      0.000s      0.000w     27 calls
DFH: compute_J                      :      0.000u      0.000s      0.001w     27 calls
DFH: compute_K                      :      0.017u      0.000s      0.002w     27 calls
JK: AO2USO                          :      0.000u      0.000s      0.000w     27 calls
HF: Form F                          :      0.000u      0.000s      0.000w     27 calls
HF: Form D                          :      0.000u      0.000s      0.000w     27 calls
HF: DIIS                            :      0.117u      0.000s      0.095w     24 calls
HF: Form C                          :      0.033u      0.000s      0.007w     24 calls

--------------------------------------------------------------------------------------
DFH: sparsity prep                  :      0.017u      0.033s      0.139w      3 calls
| Libint2ERI::Libint2ERI            :      0.000u      0.017s      0.125w      3 calls
DFH: initialize()                   :      0.083u      0.000s      0.201w      3 calls
| Libint2ERI::Libint2ERI            :      0.000u      0.000s      0.014w      6 calls
| DFH: AO Construction              :      0.033u      0.000s      0.022w      3 calls
| DFH: AO-Met. Contraction          :      0.000u      0.000s      0.002w      3 calls
HF: Form core H                     :      0.000u      0.000s      0.005w      3 calls
HF: Form S/X                        :      0.000u      0.000s      0.000w      3 calls
HF: Guess                           :      0.200u      0.017s      0.218w      3 calls
| SAD Guess                         :      0.183u      0.017s      0.213w      3 calls
HF: Form G                          :      0.017u      0.000s      0.006w     27 calls
| JK: D                             :      0.000u      0.000s      0.000w     27 calls
| JK: USO2AO                        :      0.000u      0.000s      0.001w     27 calls
| JK: JK                            :      0.017u      0.000s      0.004w     27 calls
| | DFH: compute_JK()               :      0.017u      0.000s      0.004w     27 calls
| | | DFH: Grabbing AOs             :      0.000u      0.000s      0.000w     27 calls
| | | DFH: compute_J                :      0.000u      0.000s      0.001w     27 calls
| | | DFH: compute_K                :      0.017u      0.000s      0.002w     27 calls
| JK: AO2USO                        :      0.000u      0.000s      0.000w     27 calls
HF: Form F                          :      0.000u      0.000s      0.000w     27 calls
HF: Form D                          :      0.000u      0.000s      0.000w     27 calls
HF: DIIS                            :      0.117u      0.000s      0.095w     24 calls
HF: Form C                          :      0.033u      0.000s      0.007w     24 calls

**************************************************************************************

Host: sophon

Timers On : Sun Feb  5 12:34:53 2023
Timers Off: Sun Feb  5 12:59:38 2023

Wall Time:     1484.61 seconds

                                                       Time (seconds)
Module                                       User      System        Wall        Calls
DFH: sparsity prep                  :      0.100u      0.033s      0.057w     10 calls
Libint2ERI::Libint2ERI              :      0.050u      0.033s      0.059w     32 calls
DFH: initialize()                   :      0.200u      0.017s      0.131w     10 calls
DFH: AO Construction                :      0.017u      0.000s      0.023w     10 calls
DFH: AO-Met. Contraction            :      0.017u      0.000s      0.003w     10 calls
HF: Form core H                     :      0.017u      0.000s      0.026w     10 calls
HF: Form S/X                        :      0.000u      0.000s      0.002w     10 calls
HF: Guess                           :      0.633u      0.033s      0.413w     10 calls
SAD Guess                           :      0.533u      0.033s      0.395w     10 calls
HF: Form G                          :      0.000u      0.000s      0.016w     84 calls
JK: D                               :      0.000u      0.000s      0.001w     84 calls
JK: USO2AO                          :      0.000u      0.000s      0.002w     84 calls
JK: JK                              :      0.000u      0.000s      0.010w     84 calls
DFH: compute_JK()                   :      0.000u      0.000s      0.010w     84 calls
DFH: Grabbing AOs                   :      0.000u      0.000s      0.000w     84 calls
DFH: compute_J                      :      0.000u      0.000s      0.003w     84 calls
DFH: compute_K                      :      0.000u      0.000s      0.005w     84 calls
JK: AO2USO                          :      0.000u      0.000s      0.001w     84 calls
HF: Form F                          :      0.017u      0.000s      0.001w     84 calls
HF: Form D                          :      0.000u      0.000s      0.000w     84 calls
HF: DIIS                            :      0.350u      0.017s      0.235w     74 calls
HF: Form C                          :      0.067u      0.000s      0.022w     74 calls
DFMP2 Singles                       :      0.000u      0.000s      0.000w      1 calls
DFMP2 Aia                           :      0.000u      0.000s      0.005w      1 calls
DFMP2 (A|mn)                        :      0.000u      0.000s      0.002w      1 calls
DFMP2 (A|mn)C_mi                    :      0.000u      0.000s      0.000w      1 calls
DFMP2 (A|mi)C_na                    :      0.000u      0.000s      0.000w      1 calls
DFMP2 Aia Write                     :      0.000u      0.000s      0.000w      1 calls
DFMP2 Bia                           :      0.017u      0.000s      0.008w      1 calls
DFMP2 Metric                        :      0.017u      0.000s      0.008w      1 calls
DFMP2 Aia Read                      :      0.000u      0.000s      0.000w      1 calls
DFMP2 (ia|A)(A|Q)                   :      0.000u      0.000s      0.000w      1 calls
DFMP2 Bia Write                     :      0.000u      0.000s      0.000w      1 calls
DFMP2 Energy                        :      0.000u      0.000s      0.001w      1 calls
DFMP2 Bia Read                      :      0.000u      0.000s      0.000w      2 calls

--------------------------------------------------------------------------------------
DFH: sparsity prep                  :      0.100u      0.033s      0.057w     10 calls
| Libint2ERI::Libint2ERI            :      0.050u      0.033s      0.034w     10 calls
DFH: initialize()                   :      0.200u      0.017s      0.131w     10 calls
| Libint2ERI::Libint2ERI            :      0.000u      0.000s      0.024w     20 calls
| DFH: AO Construction              :      0.017u      0.000s      0.023w     10 calls
| DFH: AO-Met. Contraction          :      0.017u      0.000s      0.003w     10 calls
HF: Form core H                     :      0.017u      0.000s      0.026w     10 calls
HF: Form S/X                        :      0.000u      0.000s      0.002w     10 calls
HF: Guess                           :      0.633u      0.033s      0.413w     10 calls
| SAD Guess                         :      0.533u      0.033s      0.395w     10 calls
HF: Form G                          :      0.000u      0.000s      0.016w     84 calls
| JK: D                             :      0.000u      0.000s      0.001w     84 calls
| JK: USO2AO                        :      0.000u      0.000s      0.002w     84 calls
| JK: JK                            :      0.000u      0.000s      0.010w     84 calls
| | DFH: compute_JK()               :      0.000u      0.000s      0.010w     84 calls
| | | DFH: Grabbing AOs             :      0.000u      0.000s      0.000w     84 calls
| | | DFH: compute_J                :      0.000u      0.000s      0.003w     84 calls
| | | DFH: compute_K                :      0.000u      0.000s      0.005w     84 calls
| JK: AO2USO                        :      0.000u      0.000s      0.001w     84 calls
HF: Form F                          :      0.017u      0.000s      0.001w     84 calls
HF: Form D                          :      0.000u      0.000s      0.000w     84 calls
HF: DIIS                            :      0.350u      0.017s      0.235w     74 calls
HF: Form C                          :      0.067u      0.000s      0.022w     74 calls
DFMP2 Singles                       :      0.000u      0.000s      0.000w      1 calls
DFMP2 Aia                           :      0.000u      0.000s      0.005w      1 calls
| Libint2ERI::Libint2ERI            :      0.000u      0.000s      0.001w      1 calls
| DFMP2 (A|mn)                      :      0.000u      0.000s      0.002w      1 calls
| DFMP2 (A|mn)C_mi                  :      0.000u      0.000s      0.000w      1 calls
| DFMP2 (A|mi)C_na                  :      0.000u      0.000s      0.000w      1 calls
| DFMP2 Aia Write                   :      0.000u      0.000s      0.000w      1 calls
DFMP2 Bia                           :      0.017u      0.000s      0.008w      1 calls
| DFMP2 Metric                      :      0.017u      0.000s      0.008w      1 calls
| | Libint2ERI::Libint2ERI          :      0.000u      0.000s      0.000w      1 calls
| DFMP2 Aia Read                    :      0.000u      0.000s      0.000w      1 calls
| DFMP2 (ia|A)(A|Q)                 :      0.000u      0.000s      0.000w      1 calls
| DFMP2 Bia Write                   :      0.000u      0.000s      0.000w      1 calls
DFMP2 Energy                        :      0.000u      0.000s      0.001w      1 calls
| DFMP2 Bia Read                    :      0.000u      0.000s      0.000w      2 calls

**************************************************************************************

Host: sophon

Timers On : Sun Feb  5 12:59:40 2023
Timers Off: Sun Feb  5 13:27:27 2023

Wall Time:     1667.68 seconds

                                                       Time (seconds)
Module                                       User      System        Wall        Calls
DFH: sparsity prep                  :      0.017u      0.000s      0.015w      5 calls
Libint2ERI::Libint2ERI              :      0.033u      0.000s      0.021w     32 calls
DFH: initialize()                   :      0.083u      0.000s      0.049w      5 calls
DFH: AO Construction                :      0.000u      0.000s      0.005w      5 calls
DFH: AO-Met. Contraction            :      0.000u      0.000s      0.001w      5 calls
HF: Form core H                     :      0.033u      0.017s      0.314w     10 calls
HF: Form S/X                        :      0.000u      0.000s      0.002w     10 calls
HF: Guess                           :      0.533u      0.017s      0.345w     10 calls
SAD Guess                           :      0.483u      0.017s      0.319w     10 calls
HF: Form G                          :      0.767u      0.000s      0.543w     97 calls
JK: D                               :      0.000u      0.000s      0.001w     97 calls
JK: USO2AO                          :      0.000u      0.000s      0.002w     97 calls
JK: JK                              :      0.000u      0.000s      0.005w     97 calls
DFH: compute_JK()                   :      0.000u      0.000s      0.004w     42 calls
DFH: Grabbing AOs                   :      0.000u      0.000s      0.000w     42 calls
DFH: compute_J                      :      0.000u      0.000s      0.001w     42 calls
DFH: compute_K                      :      0.000u      0.000s      0.002w     42 calls
PK computes JK                      :      0.000u      0.000s      0.001w     55 calls
JK: AO2USO                          :      0.000u      0.000s      0.001w     97 calls
RV: Form V                          :      0.767u      0.000s      0.532w      7 calls
Properties                          :      0.083u      0.000s      0.077w   3829 calls
Functional                          :      0.550u      0.000s      0.362w   3829 calls
V_xc                                :      0.117u      0.000s      0.078w   3829 calls
HF: Form F                          :      0.000u      0.000s      0.001w     97 calls
HF: Form D                          :      0.000u      0.000s      0.000w     97 calls
HF: DIIS                            :      0.550u      0.050s      0.273w     87 calls
HF: Form C                          :      0.050u      0.000s      0.023w     87 calls
DFMP2 Singles                       :      0.000u      0.000s      0.000w      1 calls
DFMP2 Aia                           :      0.000u      0.000s      0.003w      1 calls
DFMP2 (A|mn)                        :      0.000u      0.000s      0.001w      1 calls
DFMP2 (A|mn)C_mi                    :      0.000u      0.000s      0.000w      1 calls
DFMP2 (A|mi)C_na                    :      0.000u      0.000s      0.000w      1 calls
DFMP2 Aia Write                     :      0.000u      0.000s      0.000w      1 calls
DFMP2 Bia                           :      0.017u      0.000s      0.005w      1 calls
DFMP2 Metric                        :      0.017u      0.000s      0.004w      1 calls
DFMP2 Aia Read                      :      0.000u      0.000s      0.000w      1 calls
DFMP2 (ia|A)(A|Q)                   :      0.000u      0.000s      0.000w      1 calls
DFMP2 Bia Write                     :      0.000u      0.000s      0.000w      1 calls
DFMP2 Energy                        :      0.000u      0.000s      0.000w      1 calls
DFMP2 Bia Read                      :      0.000u      0.000s      0.000w      2 calls
Total PK formation time             :      0.067u      0.000s      0.040w      5 calls
ccenergy                            :      0.233u      0.233s      0.465w      4 calls
F build                             :      0.017u      0.000s      0.035w     16 calls
Wmbej build                         :      0.017u      0.000s      0.014w     16 calls
C->Wmbej                            :      0.000u      0.000s      0.001w     16 calls
F->Wmbej                            :      0.000u      0.000s      0.006w     16 calls
E->Wmbej                            :      0.017u      0.000s      0.002w     16 calls
X->Wmbej                            :      0.000u      0.000s      0.004w     16 calls
Z                                   :      0.000u      0.017s      0.001w     16 calls
T2 Build                            :      0.033u      0.000s      0.042w     16 calls
BT2                                 :      0.000u      0.000s      0.008w     16 calls
ABCD:new                            :      0.000u      0.000s      0.008w     16 calls
ABCD:S                              :      0.000u      0.000s      0.001w     16 calls
ABCD:A                              :      0.000u      0.000s      0.001w     16 calls
ABCD:axpy                           :      0.000u      0.000s      0.004w     16 calls
FT2                                 :      0.017u      0.000s      0.002w     16 calls
WmbejT2                             :      0.017u      0.000s      0.005w     16 calls
CT2                                 :      0.000u      0.000s      0.010w     16 calls
cctriples                           :      0.017u      0.033s      0.065w      2 calls
ET_RHF                              :      0.000u      0.000s      0.032w      2 calls
FNOCC: Initializing Integrals       :      0.000u      0.000s      0.000w      1 calls
FNOCC: Two Elec Int Trans.          :      0.000u      0.000s      0.023w      1 calls
FNOCC: CC energy                    :      0.033u      0.050s      0.160w      1 calls
FNOCC: triples                      :      0.017u      0.000s      0.009w      1 calls
V: Grid                             :      0.050u      0.000s      0.084w      1 calls
build grid                          :      0.033u      0.000s      0.028w      1 calls
post-process grid                   :      0.017u      0.000s      0.011w      1 calls

--------------------------------------------------------------------------------------
DFH: sparsity prep                  :      0.017u      0.000s      0.015w      5 calls
| Libint2ERI::Libint2ERI            :      0.000u      0.000s      0.006w      5 calls
DFH: initialize()                   :      0.083u      0.000s      0.049w      5 calls
| Libint2ERI::Libint2ERI            :      0.000u      0.000s      0.004w     10 calls
| DFH: AO Construction              :      0.000u      0.000s      0.005w      5 calls
| DFH: AO-Met. Contraction          :      0.000u      0.000s      0.001w      5 calls
HF: Form core H                     :      0.033u      0.017s      0.314w     10 calls
HF: Form S/X                        :      0.000u      0.000s      0.002w     10 calls
HF: Guess                           :      0.533u      0.017s      0.345w     10 calls
| SAD Guess                         :      0.483u      0.017s      0.319w     10 calls
HF: Form G                          :      0.767u      0.000s      0.543w     97 calls
| JK: D                             :      0.000u      0.000s      0.001w     97 calls
| JK: USO2AO                        :      0.000u      0.000s      0.002w     97 calls
| JK: JK                            :      0.000u      0.000s      0.005w     97 calls
| | DFH: compute_JK()               :      0.000u      0.000s      0.004w     42 calls
| | | DFH: Grabbing AOs             :      0.000u      0.000s      0.000w     42 calls
| | | DFH: compute_J                :      0.000u      0.000s      0.001w     42 calls
| | | DFH: compute_K                :      0.000u      0.000s      0.002w     42 calls
| | PK computes JK                  :      0.000u      0.000s      0.001w     55 calls
| JK: AO2USO                        :      0.000u      0.000s      0.001w     97 calls
| RV: Form V                        :      0.767u      0.000s      0.532w      7 calls
| | Properties                      :      0.083u      0.000s      0.077w   3829 calls
| | Functional                      :      0.550u      0.000s      0.362w   3829 calls
| | V_xc                            :      0.117u      0.000s      0.078w   3829 calls
HF: Form F                          :      0.000u      0.000s      0.001w     97 calls
HF: Form D                          :      0.000u      0.000s      0.000w     97 calls
HF: DIIS                            :      0.550u      0.050s      0.273w     87 calls
HF: Form C                          :      0.050u      0.000s      0.023w     87 calls
DFMP2 Singles                       :      0.000u      0.000s      0.000w      1 calls
DFMP2 Aia                           :      0.000u      0.000s      0.003w      1 calls
| Libint2ERI::Libint2ERI            :      0.000u      0.000s      0.000w      1 calls
| DFMP2 (A|mn)                      :      0.000u      0.000s      0.001w      1 calls
| DFMP2 (A|mn)C_mi                  :      0.000u      0.000s      0.000w      1 calls
| DFMP2 (A|mi)C_na                  :      0.000u      0.000s      0.000w      1 calls
| DFMP2 Aia Write                   :      0.000u      0.000s      0.000w      1 calls
DFMP2 Bia                           :      0.017u      0.000s      0.005w      1 calls
| DFMP2 Metric                      :      0.017u      0.000s      0.004w      1 calls
| | Libint2ERI::Libint2ERI          :      0.000u      0.000s      0.000w      1 calls
| DFMP2 Aia Read                    :      0.000u      0.000s      0.000w      1 calls
| DFMP2 (ia|A)(A|Q)                 :      0.000u      0.000s      0.000w      1 calls
| DFMP2 Bia Write                   :      0.000u      0.000s      0.000w      1 calls
DFMP2 Energy                        :      0.000u      0.000s      0.000w      1 calls
| DFMP2 Bia Read                    :      0.000u      0.000s      0.000w      2 calls
Total PK formation time             :      0.067u      0.000s      0.040w      5 calls
| Libint2ERI::Libint2ERI            :      0.017u      0.000s      0.008w     10 calls
Libint2ERI::Libint2ERI              :      0.017u      0.000s      0.004w      5 calls
ccenergy                            :      0.233u      0.233s      0.465w      4 calls
| F build                           :      0.017u      0.000s      0.035w     16 calls
| Wmbej build                       :      0.017u      0.000s      0.014w     16 calls
| | C->Wmbej                        :      0.000u      0.000s      0.001w     16 calls
| | F->Wmbej                        :      0.000u      0.000s      0.006w     16 calls
| | E->Wmbej                        :      0.017u      0.000s      0.002w     16 calls
| | X->Wmbej                        :      0.000u      0.000s      0.004w     16 calls
| Z                                 :      0.000u      0.017s      0.001w     16 calls
| T2 Build                          :      0.033u      0.000s      0.042w     16 calls
| | BT2                             :      0.000u      0.000s      0.008w     16 calls
| | | ABCD:new                      :      0.000u      0.000s      0.008w     16 calls
| | | | ABCD:S                      :      0.000u      0.000s      0.001w     16 calls
| | | | ABCD:A                      :      0.000u      0.000s      0.001w     16 calls
| | | | ABCD:axpy                   :      0.000u      0.000s      0.004w     16 calls
| | FT2                             :      0.017u      0.000s      0.002w     16 calls
| | WmbejT2                         :      0.017u      0.000s      0.005w     16 calls
| | CT2                             :      0.000u      0.000s      0.010w     16 calls
cctriples                           :      0.017u      0.033s      0.065w      2 calls
| ET_RHF                            :      0.000u      0.000s      0.032w      2 calls
FNOCC: Initializing Integrals       :      0.000u      0.000s      0.000w      1 calls
FNOCC: Two Elec Int Trans.          :      0.000u      0.000s      0.023w      1 calls
FNOCC: CC energy                    :      0.033u      0.050s      0.160w      1 calls
| FNOCC: triples                    :      0.017u      0.000s      0.009w      1 calls
V: Grid                             :      0.050u      0.000s      0.084w      1 calls
| build grid                        :      0.033u      0.000s      0.028w      1 calls
| post-process grid                 :      0.017u      0.000s      0.011w      1 calls

**************************************************************************************

Host: sophon

Timers On : Sun Feb  5 13:27:49 2023
Timers Off: Sun Feb  5 13:45:40 2023

Wall Time:     1070.81 seconds

                                                       Time (seconds)
Module                                       User      System        Wall        Calls
DFH: sparsity prep                  :      0.017u      0.000s      0.004w      1 calls
Libint2ERI::Libint2ERI              :      0.017u      0.000s      0.004w      3 calls
DFH: initialize()                   :      0.017u      0.017s      0.011w      1 calls
DFH: AO Construction                :      0.000u      0.017s      0.001w      1 calls
DFH: AO-Met. Contraction            :      0.000u      0.000s      0.000w      1 calls
HF: Form core H                     :      0.000u      0.000s      0.001w      1 calls
HF: Form S/X                        :      0.000u      0.000s      0.000w      1 calls
HF: Guess                           :      0.050u      0.000s      0.033w      1 calls
SAD Guess                           :      0.050u      0.000s      0.031w      1 calls
HF: Form G                          :      0.000u      0.000s      0.001w      8 calls
JK: D                               :      0.000u      0.000s      0.000w      8 calls
JK: USO2AO                          :      0.000u      0.000s      0.000w      8 calls
JK: JK                              :      0.000u      0.000s      0.001w      8 calls
DFH: compute_JK()                   :      0.000u      0.000s      0.001w      8 calls
DFH: Grabbing AOs                   :      0.000u      0.000s      0.000w      8 calls
DFH: compute_J                      :      0.000u      0.000s      0.000w      8 calls
DFH: compute_K                      :      0.000u      0.000s      0.000w      8 calls
JK: AO2USO                          :      0.000u      0.000s      0.000w      8 calls
HF: Form F                          :      0.000u      0.000s      0.000w      8 calls
HF: Form D                          :      0.000u      0.000s      0.000w      8 calls
HF: DIIS                            :      0.067u      0.000s      0.024w      7 calls
HF: Form C                          :      0.000u      0.000s      0.002w      7 calls

--------------------------------------------------------------------------------------
DFH: sparsity prep                  :      0.017u      0.000s      0.004w      1 calls
| Libint2ERI::Libint2ERI            :      0.017u      0.000s      0.002w      1 calls
DFH: initialize()                   :      0.017u      0.017s      0.011w      1 calls
| Libint2ERI::Libint2ERI            :      0.000u      0.000s      0.002w      2 calls
| DFH: AO Construction              :      0.000u      0.017s      0.001w      1 calls
| DFH: AO-Met. Contraction          :      0.000u      0.000s      0.000w      1 calls
HF: Form core H                     :      0.000u      0.000s      0.001w      1 calls
HF: Form S/X                        :      0.000u      0.000s      0.000w      1 calls
HF: Guess                           :      0.050u      0.000s      0.033w      1 calls
| SAD Guess                         :      0.050u      0.000s      0.031w      1 calls
HF: Form G                          :      0.000u      0.000s      0.001w      8 calls
| JK: D                             :      0.000u      0.000s      0.000w      8 calls
| JK: USO2AO                        :      0.000u      0.000s      0.000w      8 calls
| JK: JK                            :      0.000u      0.000s      0.001w      8 calls
| | DFH: compute_JK()               :      0.000u      0.000s      0.001w      8 calls
| | | DFH: Grabbing AOs             :      0.000u      0.000s      0.000w      8 calls
| | | DFH: compute_J                :      0.000u      0.000s      0.000w      8 calls
| | | DFH: compute_K                :      0.000u      0.000s      0.000w      8 calls
| JK: AO2USO                        :      0.000u      0.000s      0.000w      8 calls
HF: Form F                          :      0.000u      0.000s      0.000w      8 calls
HF: Form D                          :      0.000u      0.000s      0.000w      8 calls
HF: DIIS                            :      0.067u      0.000s      0.024w      7 calls
HF: Form C                          :      0.000u      0.000s      0.002w      7 calls

**************************************************************************************

Host: sophon

Timers On : Sun Feb  5 13:45:42 2023
Timers Off: Sun Feb  5 13:48:02 2023

Wall Time:      139.92 seconds

                                                       Time (seconds)
Module                                       User      System        Wall        Calls
DFH: sparsity prep                  :      0.000u      0.017s      0.004w      1 calls
Libint2ERI::Libint2ERI              :      0.000u      0.000s      0.004w      3 calls
DFH: initialize()                   :      0.017u      0.017s      0.092w      1 calls
DFH: AO Construction                :      0.000u      0.017s      0.003w      1 calls
DFH: AO-Met. Contraction            :      0.000u      0.000s      0.000w      1 calls
HF: Form core H                     :      0.000u      0.000s      0.001w      1 calls
HF: Form S/X                        :      0.000u      0.000s      0.000w      1 calls
HF: Guess                           :      0.067u      0.017s      0.103w      1 calls
SAD Guess                           :      0.067u      0.017s      0.101w      1 calls
HF: Form G                          :      0.000u      0.000s      0.001w      8 calls
JK: D                               :      0.000u      0.000s      0.000w      8 calls
JK: USO2AO                          :      0.000u      0.000s      0.000w      8 calls
JK: JK                              :      0.000u      0.000s      0.001w      8 calls
DFH: compute_JK()                   :      0.000u      0.000s      0.001w      8 calls
DFH: Grabbing AOs                   :      0.000u      0.000s      0.000w      8 calls
DFH: compute_J                      :      0.000u      0.000s      0.000w      8 calls
DFH: compute_K                      :      0.000u      0.000s      0.000w      8 calls
JK: AO2USO                          :      0.000u      0.000s      0.000w      8 calls
HF: Form F                          :      0.000u      0.000s      0.000w      8 calls
HF: Form D                          :      0.000u      0.000s      0.000w      8 calls
HF: DIIS                            :      0.017u      0.000s      0.024w      7 calls
HF: Form C                          :      0.000u      0.000s      0.002w      7 calls

--------------------------------------------------------------------------------------
DFH: sparsity prep                  :      0.000u      0.017s      0.004w      1 calls
| Libint2ERI::Libint2ERI            :      0.000u      0.000s      0.002w      1 calls
DFH: initialize()                   :      0.017u      0.017s      0.092w      1 calls
| Libint2ERI::Libint2ERI            :      0.000u      0.000s      0.002w      2 calls
| DFH: AO Construction              :      0.000u      0.017s      0.003w      1 calls
| DFH: AO-Met. Contraction          :      0.000u      0.000s      0.000w      1 calls
HF: Form core H                     :      0.000u      0.000s      0.001w      1 calls
HF: Form S/X                        :      0.000u      0.000s      0.000w      1 calls
HF: Guess                           :      0.067u      0.017s      0.103w      1 calls
| SAD Guess                         :      0.067u      0.017s      0.101w      1 calls
HF: Form G                          :      0.000u      0.000s      0.001w      8 calls
| JK: D                             :      0.000u      0.000s      0.000w      8 calls
| JK: USO2AO                        :      0.000u      0.000s      0.000w      8 calls
| JK: JK                            :      0.000u      0.000s      0.001w      8 calls
| | DFH: compute_JK()               :      0.000u      0.000s      0.001w      8 calls
| | | DFH: Grabbing AOs             :      0.000u      0.000s      0.000w      8 calls
| | | DFH: compute_J                :      0.000u      0.000s      0.000w      8 calls
| | | DFH: compute_K                :      0.000u      0.000s      0.000w      8 calls
| JK: AO2USO                        :      0.000u      0.000s      0.000w      8 calls
HF: Form F                          :      0.000u      0.000s      0.000w      8 calls
HF: Form D                          :      0.000u      0.000s      0.000w      8 calls
HF: DIIS                            :      0.017u      0.000s      0.024w      7 calls
HF: Form C                          :      0.000u      0.000s      0.002w      7 calls

**************************************************************************************

Host: sophon

Timers On : Sun Feb  5 13:48:28 2023
Timers Off: Sun Feb  5 13:48:51 2023

Wall Time:       22.14 seconds

                                                       Time (seconds)
Module                                       User      System        Wall        Calls
DFH: sparsity prep                  :      0.017u      0.000s      0.004w      1 calls
Libint2ERI::Libint2ERI              :      0.017u      0.000s      0.003w      3 calls
DFH: initialize()                   :      0.017u      0.000s      0.010w      1 calls
DFH: AO Construction                :      0.000u      0.000s      0.001w      1 calls
DFH: AO-Met. Contraction            :      0.000u      0.000s      0.000w      1 calls
HF: Form core H                     :      0.000u      0.000s      0.001w      1 calls
HF: Form S/X                        :      0.000u      0.000s      0.000w      1 calls
HF: Guess                           :      0.050u      0.000s      0.029w      1 calls
SAD Guess                           :      0.050u      0.000s      0.028w      1 calls
HF: Form G                          :      0.000u      0.000s      0.001w      8 calls
JK: D                               :      0.000u      0.000s      0.000w      8 calls
JK: USO2AO                          :      0.000u      0.000s      0.000w      8 calls
JK: JK                              :      0.000u      0.000s      0.001w      8 calls
DFH: compute_JK()                   :      0.000u      0.000s      0.001w      8 calls
DFH: Grabbing AOs                   :      0.000u      0.000s      0.000w      8 calls
DFH: compute_J                      :      0.000u      0.000s      0.000w      8 calls
DFH: compute_K                      :      0.000u      0.000s      0.000w      8 calls
JK: AO2USO                          :      0.000u      0.000s      0.000w      8 calls
HF: Form F                          :      0.000u      0.000s      0.000w      8 calls
HF: Form D                          :      0.000u      0.000s      0.000w      8 calls
HF: DIIS                            :      0.017u      0.000s      0.019w      7 calls
HF: Form C                          :      0.017u      0.000s      0.002w      7 calls

--------------------------------------------------------------------------------------
DFH: sparsity prep                  :      0.017u      0.000s      0.004w      1 calls
| Libint2ERI::Libint2ERI            :      0.017u      0.000s      0.002w      1 calls
DFH: initialize()                   :      0.017u      0.000s      0.010w      1 calls
| Libint2ERI::Libint2ERI            :      0.000u      0.000s      0.001w      2 calls
| DFH: AO Construction              :      0.000u      0.000s      0.001w      1 calls
| DFH: AO-Met. Contraction          :      0.000u      0.000s      0.000w      1 calls
HF: Form core H                     :      0.000u      0.000s      0.001w      1 calls
HF: Form S/X                        :      0.000u      0.000s      0.000w      1 calls
HF: Guess                           :      0.050u      0.000s      0.029w      1 calls
| SAD Guess                         :      0.050u      0.000s      0.028w      1 calls
HF: Form G                          :      0.000u      0.000s      0.001w      8 calls
| JK: D                             :      0.000u      0.000s      0.000w      8 calls
| JK: USO2AO                        :      0.000u      0.000s      0.000w      8 calls
| JK: JK                            :      0.000u      0.000s      0.001w      8 calls
| | DFH: compute_JK()               :      0.000u      0.000s      0.001w      8 calls
| | | DFH: Grabbing AOs             :      0.000u      0.000s      0.000w      8 calls
| | | DFH: compute_J                :      0.000u      0.000s      0.000w      8 calls
| | | DFH: compute_K                :      0.000u      0.000s      0.000w      8 calls
| JK: AO2USO                        :      0.000u      0.000s      0.000w      8 calls
HF: Form F                          :      0.000u      0.000s      0.000w      8 calls
HF: Form D                          :      0.000u      0.000s      0.000w      8 calls
HF: DIIS                            :      0.017u      0.000s      0.019w      7 calls
HF: Form C                          :      0.017u      0.000s      0.002w      7 calls

**************************************************************************************

Host: sophon

Timers On : Sun Feb  5 13:48:52 2023
Timers Off: Sun Feb  5 13:50:47 2023

Wall Time:      114.59 seconds

                                                       Time (seconds)
Module                                       User      System        Wall        Calls
DFH: sparsity prep                  :      0.000u      0.000s      0.004w      1 calls
Libint2ERI::Libint2ERI              :      0.017u      0.000s      0.003w      3 calls
DFH: initialize()                   :      0.017u      0.000s      0.010w      1 calls
DFH: AO Construction                :      0.000u      0.000s      0.001w      1 calls
DFH: AO-Met. Contraction            :      0.000u      0.000s      0.000w      1 calls
HF: Form core H                     :      0.000u      0.000s      0.001w      1 calls
HF: Form S/X                        :      0.000u      0.000s      0.000w      1 calls
HF: Guess                           :      0.050u      0.017s      0.030w      1 calls
SAD Guess                           :      0.050u      0.017s      0.028w      1 calls
HF: Form G                          :      0.000u      0.000s      0.001w      8 calls
JK: D                               :      0.000u      0.000s      0.000w      8 calls
JK: USO2AO                          :      0.000u      0.000s      0.000w      8 calls
JK: JK                              :      0.000u      0.000s      0.001w      8 calls
DFH: compute_JK()                   :      0.000u      0.000s      0.001w      8 calls
DFH: Grabbing AOs                   :      0.000u      0.000s      0.000w      8 calls
DFH: compute_J                      :      0.000u      0.000s      0.000w      8 calls
DFH: compute_K                      :      0.000u      0.000s      0.000w      8 calls
JK: AO2USO                          :      0.000u      0.000s      0.000w      8 calls
HF: Form F                          :      0.000u      0.000s      0.000w      8 calls
HF: Form D                          :      0.000u      0.000s      0.000w      8 calls
HF: DIIS                            :      0.050u      0.000s      0.021w      7 calls
HF: Form C                          :      0.000u      0.000s      0.002w      7 calls

--------------------------------------------------------------------------------------
DFH: sparsity prep                  :      0.000u      0.000s      0.004w      1 calls
| Libint2ERI::Libint2ERI            :      0.000u      0.000s      0.002w      1 calls
DFH: initialize()                   :      0.017u      0.000s      0.010w      1 calls
| Libint2ERI::Libint2ERI            :      0.017u      0.000s      0.001w      2 calls
| DFH: AO Construction              :      0.000u      0.000s      0.001w      1 calls
| DFH: AO-Met. Contraction          :      0.000u      0.000s      0.000w      1 calls
HF: Form core H                     :      0.000u      0.000s      0.001w      1 calls
HF: Form S/X                        :      0.000u      0.000s      0.000w      1 calls
HF: Guess                           :      0.050u      0.017s      0.030w      1 calls
| SAD Guess                         :      0.050u      0.017s      0.028w      1 calls
HF: Form G                          :      0.000u      0.000s      0.001w      8 calls
| JK: D                             :      0.000u      0.000s      0.000w      8 calls
| JK: USO2AO                        :      0.000u      0.000s      0.000w      8 calls
| JK: JK                            :      0.000u      0.000s      0.001w      8 calls
| | DFH: compute_JK()               :      0.000u      0.000s      0.001w      8 calls
| | | DFH: Grabbing AOs             :      0.000u      0.000s      0.000w      8 calls
| | | DFH: compute_J                :      0.000u      0.000s      0.000w      8 calls
| | | DFH: compute_K                :      0.000u      0.000s      0.000w      8 calls
| JK: AO2USO                        :      0.000u      0.000s      0.000w      8 calls
HF: Form F                          :      0.000u      0.000s      0.000w      8 calls
HF: Form D                          :      0.000u      0.000s      0.000w      8 calls
HF: DIIS                            :      0.050u      0.000s      0.021w      7 calls
HF: Form C                          :      0.000u      0.000s      0.002w      7 calls

**************************************************************************************

Host: sophon

Timers On : Sun Feb  5 13:53:14 2023
Timers Off: Sun Feb  5 13:54:45 2023

Wall Time:       90.96 seconds

                                                       Time (seconds)
Module                                       User      System        Wall        Calls
DFH: sparsity prep                  :      0.000u      0.000s      0.004w      1 calls
Libint2ERI::Libint2ERI              :      0.017u      0.000s      0.003w      3 calls
DFH: initialize()                   :      0.017u      0.000s      0.010w      1 calls
DFH: AO Construction                :      0.000u      0.000s      0.001w      1 calls
DFH: AO-Met. Contraction            :      0.000u      0.000s      0.000w      1 calls
HF: Form core H                     :      0.000u      0.000s      0.001w      1 calls
HF: Form S/X                        :      0.000u      0.000s      0.000w      1 calls
HF: Guess                           :      0.050u      0.017s      0.030w      1 calls
SAD Guess                           :      0.050u      0.017s      0.028w      1 calls
HF: Form G                          :      0.017u      0.000s      0.001w      8 calls
JK: D                               :      0.000u      0.000s      0.000w      8 calls
JK: USO2AO                          :      0.000u      0.000s      0.000w      8 calls
JK: JK                              :      0.017u      0.000s      0.001w      8 calls
DFH: compute_JK()                   :      0.017u      0.000s      0.001w      8 calls
DFH: Grabbing AOs                   :      0.000u      0.000s      0.000w      8 calls
DFH: compute_J                      :      0.000u      0.000s      0.000w      8 calls
DFH: compute_K                      :      0.000u      0.000s      0.000w      8 calls
JK: AO2USO                          :      0.000u      0.000s      0.000w      8 calls
HF: Form F                          :      0.000u      0.000s      0.000w      8 calls
HF: Form D                          :      0.000u      0.000s      0.000w      8 calls
HF: DIIS                            :      0.033u      0.000s      0.019w      7 calls
HF: Form C                          :      0.000u      0.000s      0.002w      7 calls

--------------------------------------------------------------------------------------
DFH: sparsity prep                  :      0.000u      0.000s      0.004w      1 calls
| Libint2ERI::Libint2ERI            :      0.000u      0.000s      0.002w      1 calls
DFH: initialize()                   :      0.017u      0.000s      0.010w      1 calls
| Libint2ERI::Libint2ERI            :      0.017u      0.000s      0.001w      2 calls
| DFH: AO Construction              :      0.000u      0.000s      0.001w      1 calls
| DFH: AO-Met. Contraction          :      0.000u      0.000s      0.000w      1 calls
HF: Form core H                     :      0.000u      0.000s      0.001w      1 calls
HF: Form S/X                        :      0.000u      0.000s      0.000w      1 calls
HF: Guess                           :      0.050u      0.017s      0.030w      1 calls
| SAD Guess                         :      0.050u      0.017s      0.028w      1 calls
HF: Form G                          :      0.017u      0.000s      0.001w      8 calls
| JK: D                             :      0.000u      0.000s      0.000w      8 calls
| JK: USO2AO                        :      0.000u      0.000s      0.000w      8 calls
| JK: JK                            :      0.017u      0.000s      0.001w      8 calls
| | DFH: compute_JK()               :      0.017u      0.000s      0.001w      8 calls
| | | DFH: Grabbing AOs             :      0.000u      0.000s      0.000w      8 calls
| | | DFH: compute_J                :      0.000u      0.000s      0.000w      8 calls
| | | DFH: compute_K                :      0.000u      0.000s      0.000w      8 calls
| JK: AO2USO                        :      0.000u      0.000s      0.000w      8 calls
HF: Form F                          :      0.000u      0.000s      0.000w      8 calls
HF: Form D                          :      0.000u      0.000s      0.000w      8 calls
HF: DIIS                            :      0.033u      0.000s      0.019w      7 calls
HF: Form C                          :      0.000u      0.000s      0.002w      7 calls

**************************************************************************************

Host: sophon

Timers On : Sun Feb  5 14:01:04 2023
Timers Off: Sun Feb  5 14:06:45 2023

Wall Time:      340.92 seconds

                                                       Time (seconds)
Module                                       User      System        Wall        Calls
DFH: sparsity prep                  :      0.000u      0.000s      0.004w      1 calls
Libint2ERI::Libint2ERI              :      0.017u      0.000s      0.003w      3 calls
DFH: initialize()                   :      0.017u      0.000s      0.010w      1 calls
DFH: AO Construction                :      0.000u      0.000s      0.001w      1 calls
DFH: AO-Met. Contraction            :      0.000u      0.000s      0.000w      1 calls
HF: Form core H                     :      0.000u      0.000s      0.001w      1 calls
HF: Form S/X                        :      0.000u      0.000s      0.000w      1 calls
HF: Guess                           :      0.050u      0.000s      0.030w      1 calls
SAD Guess                           :      0.050u      0.000s      0.028w      1 calls
HF: Form G                          :      0.000u      0.000s      0.001w      8 calls
JK: D                               :      0.000u      0.000s      0.000w      8 calls
JK: USO2AO                          :      0.000u      0.000s      0.000w      8 calls
JK: JK                              :      0.000u      0.000s      0.001w      8 calls
DFH: compute_JK()                   :      0.000u      0.000s      0.001w      8 calls
DFH: Grabbing AOs                   :      0.000u      0.000s      0.000w      8 calls
DFH: compute_J                      :      0.000u      0.000s      0.000w      8 calls
DFH: compute_K                      :      0.000u      0.000s      0.000w      8 calls
JK: AO2USO                          :      0.000u      0.000s      0.000w      8 calls
HF: Form F                          :      0.000u      0.000s      0.000w      8 calls
HF: Form D                          :      0.000u      0.000s      0.000w      8 calls
HF: DIIS                            :      0.033u      0.017s      0.019w      7 calls
HF: Form C                          :      0.000u      0.000s      0.002w      7 calls

--------------------------------------------------------------------------------------
DFH: sparsity prep                  :      0.000u      0.000s      0.004w      1 calls
| Libint2ERI::Libint2ERI            :      0.000u      0.000s      0.002w      1 calls
DFH: initialize()                   :      0.017u      0.000s      0.010w      1 calls
| Libint2ERI::Libint2ERI            :      0.017u      0.000s      0.001w      2 calls
| DFH: AO Construction              :      0.000u      0.000s      0.001w      1 calls
| DFH: AO-Met. Contraction          :      0.000u      0.000s      0.000w      1 calls
HF: Form core H                     :      0.000u      0.000s      0.001w      1 calls
HF: Form S/X                        :      0.000u      0.000s      0.000w      1 calls
HF: Guess                           :      0.050u      0.000s      0.030w      1 calls
| SAD Guess                         :      0.050u      0.000s      0.028w      1 calls
HF: Form G                          :      0.000u      0.000s      0.001w      8 calls
| JK: D                             :      0.000u      0.000s      0.000w      8 calls
| JK: USO2AO                        :      0.000u      0.000s      0.000w      8 calls
| JK: JK                            :      0.000u      0.000s      0.001w      8 calls
| | DFH: compute_JK()               :      0.000u      0.000s      0.001w      8 calls
| | | DFH: Grabbing AOs             :      0.000u      0.000s      0.000w      8 calls
| | | DFH: compute_J                :      0.000u      0.000s      0.000w      8 calls
| | | DFH: compute_K                :      0.000u      0.000s      0.000w      8 calls
| JK: AO2USO                        :      0.000u      0.000s      0.000w      8 calls
HF: Form F                          :      0.000u      0.000s      0.000w      8 calls
HF: Form D                          :      0.000u      0.000s      0.000w      8 calls
HF: DIIS                            :      0.033u      0.017s      0.019w      7 calls
HF: Form C                          :      0.000u      0.000s      0.002w      7 calls

**************************************************************************************

Host: sophon

Timers On : Sun Feb  5 14:08:29 2023
Timers Off: Sun Feb  5 14:10:05 2023

Wall Time:       95.53 seconds

                                                       Time (seconds)
Module                                       User      System        Wall        Calls
DFH: sparsity prep                  :      0.000u      0.000s      0.004w      1 calls
Libint2ERI::Libint2ERI              :      0.000u      0.000s      0.003w      3 calls
DFH: initialize()                   :      0.017u      0.000s      0.010w      1 calls
DFH: AO Construction                :      0.017u      0.000s      0.001w      1 calls
DFH: AO-Met. Contraction            :      0.000u      0.000s      0.000w      1 calls
HF: Form core H                     :      0.000u      0.000s      0.001w      1 calls
HF: Form S/X                        :      0.000u      0.000s      0.000w      1 calls
HF: Guess                           :      0.050u      0.000s      0.056w      1 calls
SAD Guess                           :      0.050u      0.000s      0.054w      1 calls
HF: Form G                          :      0.000u      0.000s      0.001w      8 calls
JK: D                               :      0.000u      0.000s      0.000w      8 calls
JK: USO2AO                          :      0.000u      0.000s      0.000w      8 calls
JK: JK                              :      0.000u      0.000s      0.001w      8 calls
DFH: compute_JK()                   :      0.000u      0.000s      0.001w      8 calls
DFH: Grabbing AOs                   :      0.000u      0.000s      0.000w      8 calls
DFH: compute_J                      :      0.000u      0.000s      0.000w      8 calls
DFH: compute_K                      :      0.000u      0.000s      0.000w      8 calls
JK: AO2USO                          :      0.000u      0.000s      0.000w      8 calls
HF: Form F                          :      0.000u      0.000s      0.000w      8 calls
HF: Form D                          :      0.000u      0.000s      0.000w      8 calls
HF: DIIS                            :      0.033u      0.000s      0.019w      7 calls
HF: Form C                          :      0.000u      0.000s      0.002w      7 calls

--------------------------------------------------------------------------------------
DFH: sparsity prep                  :      0.000u      0.000s      0.004w      1 calls
| Libint2ERI::Libint2ERI            :      0.000u      0.000s      0.002w      1 calls
DFH: initialize()                   :      0.017u      0.000s      0.010w      1 calls
| Libint2ERI::Libint2ERI            :      0.000u      0.000s      0.001w      2 calls
| DFH: AO Construction              :      0.017u      0.000s      0.001w      1 calls
| DFH: AO-Met. Contraction          :      0.000u      0.000s      0.000w      1 calls
HF: Form core H                     :      0.000u      0.000s      0.001w      1 calls
HF: Form S/X                        :      0.000u      0.000s      0.000w      1 calls
HF: Guess                           :      0.050u      0.000s      0.056w      1 calls
| SAD Guess                         :      0.050u      0.000s      0.054w      1 calls
HF: Form G                          :      0.000u      0.000s      0.001w      8 calls
| JK: D                             :      0.000u      0.000s      0.000w      8 calls
| JK: USO2AO                        :      0.000u      0.000s      0.000w      8 calls
| JK: JK                            :      0.000u      0.000s      0.001w      8 calls
| | DFH: compute_JK()               :      0.000u      0.000s      0.001w      8 calls
| | | DFH: Grabbing AOs             :      0.000u      0.000s      0.000w      8 calls
| | | DFH: compute_J                :      0.000u      0.000s      0.000w      8 calls
| | | DFH: compute_K                :      0.000u      0.000s      0.000w      8 calls
| JK: AO2USO                        :      0.000u      0.000s      0.000w      8 calls
HF: Form F                          :      0.000u      0.000s      0.000w      8 calls
HF: Form D                          :      0.000u      0.000s      0.000w      8 calls
HF: DIIS                            :      0.033u      0.000s      0.019w      7 calls
HF: Form C                          :      0.000u      0.000s      0.002w      7 calls

**************************************************************************************

Host: sophon

Timers On : Sun Feb  5 14:10:06 2023
Timers Off: Sun Feb  5 14:10:21 2023

Wall Time:       15.05 seconds

                                                       Time (seconds)
Module                                       User      System        Wall        Calls
DFH: sparsity prep                  :      0.017u      0.000s      0.004w      1 calls
Libint2ERI::Libint2ERI              :      0.017u      0.000s      0.003w      3 calls
DFH: initialize()                   :      0.017u      0.000s      0.010w      1 calls
DFH: AO Construction                :      0.000u      0.000s      0.001w      1 calls
DFH: AO-Met. Contraction            :      0.000u      0.000s      0.000w      1 calls
HF: Form core H                     :      0.000u      0.000s      0.001w      1 calls
HF: Form S/X                        :      0.000u      0.000s      0.000w      1 calls
HF: Guess                           :      0.050u      0.017s      0.076w      1 calls
SAD Guess                           :      0.050u      0.017s      0.074w      1 calls
HF: Form G                          :      0.000u      0.000s      0.001w      8 calls
JK: D                               :      0.000u      0.000s      0.000w      8 calls
JK: USO2AO                          :      0.000u      0.000s      0.000w      8 calls
JK: JK                              :      0.000u      0.000s      0.001w      8 calls
DFH: compute_JK()                   :      0.000u      0.000s      0.001w      8 calls
DFH: Grabbing AOs                   :      0.000u      0.000s      0.000w      8 calls
DFH: compute_J                      :      0.000u      0.000s      0.000w      8 calls
DFH: compute_K                      :      0.000u      0.000s      0.000w      8 calls
JK: AO2USO                          :      0.000u      0.000s      0.000w      8 calls
HF: Form F                          :      0.000u      0.000s      0.000w      8 calls
HF: Form D                          :      0.000u      0.000s      0.000w      8 calls
HF: DIIS                            :      0.017u      0.017s      0.020w      7 calls
HF: Form C                          :      0.000u      0.000s      0.002w      7 calls

--------------------------------------------------------------------------------------
DFH: sparsity prep                  :      0.017u      0.000s      0.004w      1 calls
| Libint2ERI::Libint2ERI            :      0.000u      0.000s      0.002w      1 calls
DFH: initialize()                   :      0.017u      0.000s      0.010w      1 calls
| Libint2ERI::Libint2ERI            :      0.017u      0.000s      0.001w      2 calls
| DFH: AO Construction              :      0.000u      0.000s      0.001w      1 calls
| DFH: AO-Met. Contraction          :      0.000u      0.000s      0.000w      1 calls
HF: Form core H                     :      0.000u      0.000s      0.001w      1 calls
HF: Form S/X                        :      0.000u      0.000s      0.000w      1 calls
HF: Guess                           :      0.050u      0.017s      0.076w      1 calls
| SAD Guess                         :      0.050u      0.017s      0.074w      1 calls
HF: Form G                          :      0.000u      0.000s      0.001w      8 calls
| JK: D                             :      0.000u      0.000s      0.000w      8 calls
| JK: USO2AO                        :      0.000u      0.000s      0.000w      8 calls
| JK: JK                            :      0.000u      0.000s      0.001w      8 calls
| | DFH: compute_JK()               :      0.000u      0.000s      0.001w      8 calls
| | | DFH: Grabbing AOs             :      0.000u      0.000s      0.000w      8 calls
| | | DFH: compute_J                :      0.000u      0.000s      0.000w      8 calls
| | | DFH: compute_K                :      0.000u      0.000s      0.000w      8 calls
| JK: AO2USO                        :      0.000u      0.000s      0.000w      8 calls
HF: Form F                          :      0.000u      0.000s      0.000w      8 calls
HF: Form D                          :      0.000u      0.000s      0.000w      8 calls
HF: DIIS                            :      0.017u      0.017s      0.020w      7 calls
HF: Form C                          :      0.000u      0.000s      0.002w      7 calls

**************************************************************************************

Host: sophon

Timers On : Sun Feb  5 15:24:09 2023
Timers Off: Sun Feb  5 15:24:33 2023

Wall Time:       23.87 seconds

                                                       Time (seconds)
Module                                       User      System        Wall        Calls

--------------------------------------------------------------------------------------

**************************************************************************************

Host: sophon

Timers On : Sun Feb  5 15:26:11 2023
Timers Off: Sun Feb  5 15:26:15 2023

Wall Time:        4.44 seconds

                                                       Time (seconds)
Module                                       User      System        Wall        Calls
DFH: sparsity prep                  :      0.000u      0.000s      0.004w      1 calls
Libint2ERI::Libint2ERI              :      0.000u      0.000s      0.003w      3 calls
DFH: initialize()                   :      0.000u      0.017s      0.013w      1 calls
DFH: AO Construction                :      0.000u      0.000s      0.001w      1 calls
DFH: AO-Met. Contraction            :      0.000u      0.000s      0.000w      1 calls
HF: Form core H                     :      0.000u      0.000s      0.001w      1 calls
HF: Form S/X                        :      0.000u      0.000s      0.000w      1 calls
HF: Guess                           :      0.050u      0.000s      0.031w      1 calls
SAD Guess                           :      0.050u      0.000s      0.029w      1 calls
HF: Form G                          :      0.000u      0.000s      0.001w      8 calls
JK: D                               :      0.000u      0.000s      0.000w      8 calls
JK: USO2AO                          :      0.000u      0.000s      0.000w      8 calls
JK: JK                              :      0.000u      0.000s      0.001w      8 calls
DFH: compute_JK()                   :      0.000u      0.000s      0.001w      8 calls
DFH: Grabbing AOs                   :      0.000u      0.000s      0.000w      8 calls
DFH: compute_J                      :      0.000u      0.000s      0.000w      8 calls
DFH: compute_K                      :      0.000u      0.000s      0.000w      8 calls
JK: AO2USO                          :      0.000u      0.000s      0.000w      8 calls
HF: Form F                          :      0.000u      0.000s      0.000w      8 calls
HF: Form D                          :      0.000u      0.000s      0.000w      8 calls
HF: DIIS                            :      0.117u      0.033s      0.080w      7 calls
HF: Form C                          :      0.000u      0.000s      0.002w      7 calls

--------------------------------------------------------------------------------------
DFH: sparsity prep                  :      0.000u      0.000s      0.004w      1 calls
| Libint2ERI::Libint2ERI            :      0.000u      0.000s      0.002w      1 calls
DFH: initialize()                   :      0.000u      0.017s      0.013w      1 calls
| Libint2ERI::Libint2ERI            :      0.000u      0.000s      0.001w      2 calls
| DFH: AO Construction              :      0.000u      0.000s      0.001w      1 calls
| DFH: AO-Met. Contraction          :      0.000u      0.000s      0.000w      1 calls
HF: Form core H                     :      0.000u      0.000s      0.001w      1 calls
HF: Form S/X                        :      0.000u      0.000s      0.000w      1 calls
HF: Guess                           :      0.050u      0.000s      0.031w      1 calls
| SAD Guess                         :      0.050u      0.000s      0.029w      1 calls
HF: Form G                          :      0.000u      0.000s      0.001w      8 calls
| JK: D                             :      0.000u      0.000s      0.000w      8 calls
| JK: USO2AO                        :      0.000u      0.000s      0.000w      8 calls
| JK: JK                            :      0.000u      0.000s      0.001w      8 calls
| | DFH: compute_JK()               :      0.000u      0.000s      0.001w      8 calls
| | | DFH: Grabbing AOs             :      0.000u      0.000s      0.000w      8 calls
| | | DFH: compute_J                :      0.000u      0.000s      0.000w      8 calls
| | | DFH: compute_K                :      0.000u      0.000s      0.000w      8 calls
| JK: AO2USO                        :      0.000u      0.000s      0.000w      8 calls
HF: Form F                          :      0.000u      0.000s      0.000w      8 calls
HF: Form D                          :      0.000u      0.000s      0.000w      8 calls
HF: DIIS                            :      0.117u      0.033s      0.080w      7 calls
HF: Form C                          :      0.000u      0.000s      0.002w      7 calls

**************************************************************************************

Host: sophon

Timers On : Sun Feb  5 15:26:16 2023
Timers Off: Sun Feb  5 15:27:01 2023

Wall Time:       44.47 seconds

                                                       Time (seconds)
Module                                       User      System        Wall        Calls
DFH: sparsity prep                  :      0.000u      0.017s      0.004w      1 calls
Libint2ERI::Libint2ERI              :      0.000u      0.017s      0.003w      3 calls
DFH: initialize()                   :      0.017u      0.000s      0.010w      1 calls
DFH: AO Construction                :      0.000u      0.000s      0.001w      1 calls
DFH: AO-Met. Contraction            :      0.000u      0.000s      0.000w      1 calls
HF: Form core H                     :      0.000u      0.000s      0.001w      1 calls
HF: Form S/X                        :      0.000u      0.000s      0.000w      1 calls
HF: Guess                           :      0.050u      0.000s      0.030w      1 calls
SAD Guess                           :      0.033u      0.000s      0.028w      1 calls
HF: Form G                          :      0.000u      0.000s      0.001w      8 calls
JK: D                               :      0.000u      0.000s      0.000w      8 calls
JK: USO2AO                          :      0.000u      0.000s      0.000w      8 calls
JK: JK                              :      0.000u      0.000s      0.001w      8 calls
DFH: compute_JK()                   :      0.000u      0.000s      0.001w      8 calls
DFH: Grabbing AOs                   :      0.000u      0.000s      0.000w      8 calls
DFH: compute_J                      :      0.000u      0.000s      0.000w      8 calls
DFH: compute_K                      :      0.000u      0.000s      0.000w      8 calls
JK: AO2USO                          :      0.000u      0.000s      0.000w      8 calls
HF: Form F                          :      0.000u      0.000s      0.000w      8 calls
HF: Form D                          :      0.000u      0.000s      0.000w      8 calls
HF: DIIS                            :      0.050u      0.000s      0.019w      7 calls
HF: Form C                          :      0.000u      0.000s      0.002w      7 calls

--------------------------------------------------------------------------------------
DFH: sparsity prep                  :      0.000u      0.017s      0.004w      1 calls
| Libint2ERI::Libint2ERI            :      0.000u      0.017s      0.002w      1 calls
DFH: initialize()                   :      0.017u      0.000s      0.010w      1 calls
| Libint2ERI::Libint2ERI            :      0.000u      0.000s      0.001w      2 calls
| DFH: AO Construction              :      0.000u      0.000s      0.001w      1 calls
| DFH: AO-Met. Contraction          :      0.000u      0.000s      0.000w      1 calls
HF: Form core H                     :      0.000u      0.000s      0.001w      1 calls
HF: Form S/X                        :      0.000u      0.000s      0.000w      1 calls
HF: Guess                           :      0.050u      0.000s      0.030w      1 calls
| SAD Guess                         :      0.033u      0.000s      0.028w      1 calls
HF: Form G                          :      0.000u      0.000s      0.001w      8 calls
| JK: D                             :      0.000u      0.000s      0.000w      8 calls
| JK: USO2AO                        :      0.000u      0.000s      0.000w      8 calls
| JK: JK                            :      0.000u      0.000s      0.001w      8 calls
| | DFH: compute_JK()               :      0.000u      0.000s      0.001w      8 calls
| | | DFH: Grabbing AOs             :      0.000u      0.000s      0.000w      8 calls
| | | DFH: compute_J                :      0.000u      0.000s      0.000w      8 calls
| | | DFH: compute_K                :      0.000u      0.000s      0.000w      8 calls
| JK: AO2USO                        :      0.000u      0.000s      0.000w      8 calls
HF: Form F                          :      0.000u      0.000s      0.000w      8 calls
HF: Form D                          :      0.000u      0.000s      0.000w      8 calls
HF: DIIS                            :      0.050u      0.000s      0.019w      7 calls
HF: Form C                          :      0.000u      0.000s      0.002w      7 calls

**************************************************************************************

Host: sophon

Timers On : Sun Feb  5 15:27:02 2023
Timers Off: Sun Feb  5 15:27:18 2023

Wall Time:       15.37 seconds

                                                       Time (seconds)
Module                                       User      System        Wall        Calls
DFH: sparsity prep                  :      0.017u      0.000s      0.004w      1 calls
Libint2ERI::Libint2ERI              :      0.017u      0.000s      0.003w      3 calls
DFH: initialize()                   :      0.017u      0.000s      0.010w      1 calls
DFH: AO Construction                :      0.000u      0.000s      0.001w      1 calls
DFH: AO-Met. Contraction            :      0.000u      0.000s      0.000w      1 calls
HF: Form core H                     :      0.000u      0.000s      0.001w      1 calls
HF: Form S/X                        :      0.000u      0.000s      0.000w      1 calls
HF: Guess                           :      0.050u      0.000s      0.030w      1 calls
SAD Guess                           :      0.050u      0.000s      0.028w      1 calls
HF: Form G                          :      0.000u      0.000s      0.001w      8 calls
JK: D                               :      0.000u      0.000s      0.000w      8 calls
JK: USO2AO                          :      0.000u      0.000s      0.000w      8 calls
JK: JK                              :      0.000u      0.000s      0.001w      8 calls
DFH: compute_JK()                   :      0.000u      0.000s      0.001w      8 calls
DFH: Grabbing AOs                   :      0.000u      0.000s      0.000w      8 calls
DFH: compute_J                      :      0.000u      0.000s      0.000w      8 calls
DFH: compute_K                      :      0.000u      0.000s      0.000w      8 calls
JK: AO2USO                          :      0.000u      0.000s      0.000w      8 calls
HF: Form F                          :      0.000u      0.000s      0.000w      8 calls
HF: Form D                          :      0.000u      0.000s      0.000w      8 calls
HF: DIIS                            :      0.083u      0.000s      0.061w      7 calls
HF: Form C                          :      0.000u      0.000s      0.002w      7 calls

--------------------------------------------------------------------------------------
DFH: sparsity prep                  :      0.017u      0.000s      0.004w      1 calls
| Libint2ERI::Libint2ERI            :      0.017u      0.000s      0.002w      1 calls
DFH: initialize()                   :      0.017u      0.000s      0.010w      1 calls
| Libint2ERI::Libint2ERI            :      0.000u      0.000s      0.001w      2 calls
| DFH: AO Construction              :      0.000u      0.000s      0.001w      1 calls
| DFH: AO-Met. Contraction          :      0.000u      0.000s      0.000w      1 calls
HF: Form core H                     :      0.000u      0.000s      0.001w      1 calls
HF: Form S/X                        :      0.000u      0.000s      0.000w      1 calls
HF: Guess                           :      0.050u      0.000s      0.030w      1 calls
| SAD Guess                         :      0.050u      0.000s      0.028w      1 calls
HF: Form G                          :      0.000u      0.000s      0.001w      8 calls
| JK: D                             :      0.000u      0.000s      0.000w      8 calls
| JK: USO2AO                        :      0.000u      0.000s      0.000w      8 calls
| JK: JK                            :      0.000u      0.000s      0.001w      8 calls
| | DFH: compute_JK()               :      0.000u      0.000s      0.001w      8 calls
| | | DFH: Grabbing AOs             :      0.000u      0.000s      0.000w      8 calls
| | | DFH: compute_J                :      0.000u      0.000s      0.000w      8 calls
| | | DFH: compute_K                :      0.000u      0.000s      0.000w      8 calls
| JK: AO2USO                        :      0.000u      0.000s      0.000w      8 calls
HF: Form F                          :      0.000u      0.000s      0.000w      8 calls
HF: Form D                          :      0.000u      0.000s      0.000w      8 calls
HF: DIIS                            :      0.083u      0.000s      0.061w      7 calls
HF: Form C                          :      0.000u      0.000s      0.002w      7 calls

**************************************************************************************

Host: sophon

Timers On : Sun Feb  5 15:32:37 2023
Timers Off: Sun Feb  5 15:32:41 2023

Wall Time:        3.70 seconds

                                                       Time (seconds)
Module                                       User      System        Wall        Calls
DFH: sparsity prep                  :      0.000u      0.000s      0.004w      1 calls
Libint2ERI::Libint2ERI              :      0.000u      0.000s      0.003w      3 calls
DFH: initialize()                   :      0.017u      0.000s      0.010w      1 calls
DFH: AO Construction                :      0.000u      0.000s      0.001w      1 calls
DFH: AO-Met. Contraction            :      0.000u      0.000s      0.000w      1 calls
HF: Form core H                     :      0.000u      0.000s      0.001w      1 calls
HF: Form S/X                        :      0.000u      0.000s      0.000w      1 calls
HF: Guess                           :      0.050u      0.000s      0.030w      1 calls
SAD Guess                           :      0.033u      0.000s      0.029w      1 calls
HF: Form G                          :      0.000u      0.000s      0.001w      8 calls
JK: D                               :      0.000u      0.000s      0.000w      8 calls
JK: USO2AO                          :      0.000u      0.000s      0.000w      8 calls
JK: JK                              :      0.000u      0.000s      0.001w      8 calls
DFH: compute_JK()                   :      0.000u      0.000s      0.001w      8 calls
DFH: Grabbing AOs                   :      0.000u      0.000s      0.000w      8 calls
DFH: compute_J                      :      0.000u      0.000s      0.000w      8 calls
DFH: compute_K                      :      0.000u      0.000s      0.000w      8 calls
JK: AO2USO                          :      0.000u      0.000s      0.000w      8 calls
HF: Form F                          :      0.000u      0.000s      0.000w      8 calls
HF: Form D                          :      0.000u      0.000s      0.000w      8 calls
HF: DIIS                            :      0.117u      0.000s      0.080w      7 calls
HF: Form C                          :      0.000u      0.000s      0.002w      7 calls

--------------------------------------------------------------------------------------
DFH: sparsity prep                  :      0.000u      0.000s      0.004w      1 calls
| Libint2ERI::Libint2ERI            :      0.000u      0.000s      0.002w      1 calls
DFH: initialize()                   :      0.017u      0.000s      0.010w      1 calls
| Libint2ERI::Libint2ERI            :      0.000u      0.000s      0.001w      2 calls
| DFH: AO Construction              :      0.000u      0.000s      0.001w      1 calls
| DFH: AO-Met. Contraction          :      0.000u      0.000s      0.000w      1 calls
HF: Form core H                     :      0.000u      0.000s      0.001w      1 calls
HF: Form S/X                        :      0.000u      0.000s      0.000w      1 calls
HF: Guess                           :      0.050u      0.000s      0.030w      1 calls
| SAD Guess                         :      0.033u      0.000s      0.029w      1 calls
HF: Form G                          :      0.000u      0.000s      0.001w      8 calls
| JK: D                             :      0.000u      0.000s      0.000w      8 calls
| JK: USO2AO                        :      0.000u      0.000s      0.000w      8 calls
| JK: JK                            :      0.000u      0.000s      0.001w      8 calls
| | DFH: compute_JK()               :      0.000u      0.000s      0.001w      8 calls
| | | DFH: Grabbing AOs             :      0.000u      0.000s      0.000w      8 calls
| | | DFH: compute_J                :      0.000u      0.000s      0.000w      8 calls
| | | DFH: compute_K                :      0.000u      0.000s      0.000w      8 calls
| JK: AO2USO                        :      0.000u      0.000s      0.000w      8 calls
HF: Form F                          :      0.000u      0.000s      0.000w      8 calls
HF: Form D                          :      0.000u      0.000s      0.000w      8 calls
HF: DIIS                            :      0.117u      0.000s      0.080w      7 calls
HF: Form C                          :      0.000u      0.000s      0.002w      7 calls

**************************************************************************************

Host: sophon

Timers On : Sun Feb  5 15:32:42 2023
Timers Off: Sun Feb  5 15:33:00 2023

Wall Time:       17.89 seconds

                                                       Time (seconds)
Module                                       User      System        Wall        Calls
DFH: sparsity prep                  :      0.000u      0.000s      0.004w      1 calls
Libint2ERI::Libint2ERI              :      0.000u      0.000s      0.003w      3 calls
DFH: initialize()                   :      0.017u      0.000s      0.010w      1 calls
DFH: AO Construction                :      0.017u      0.000s      0.001w      1 calls
DFH: AO-Met. Contraction            :      0.000u      0.000s      0.000w      1 calls
HF: Form core H                     :      0.000u      0.000s      0.001w      1 calls
HF: Form S/X                        :      0.000u      0.000s      0.000w      1 calls
HF: Guess                           :      0.050u      0.000s      0.030w      1 calls
SAD Guess                           :      0.050u      0.000s      0.028w      1 calls
HF: Form G                          :      0.000u      0.000s      0.001w      8 calls
JK: D                               :      0.000u      0.000s      0.000w      8 calls
JK: USO2AO                          :      0.000u      0.000s      0.000w      8 calls
JK: JK                              :      0.000u      0.000s      0.001w      8 calls
DFH: compute_JK()                   :      0.000u      0.000s      0.001w      8 calls
DFH: Grabbing AOs                   :      0.000u      0.000s      0.000w      8 calls
DFH: compute_J                      :      0.000u      0.000s      0.000w      8 calls
DFH: compute_K                      :      0.000u      0.000s      0.000w      8 calls
JK: AO2USO                          :      0.000u      0.000s      0.000w      8 calls
HF: Form F                          :      0.000u      0.000s      0.000w      8 calls
HF: Form D                          :      0.000u      0.000s      0.000w      8 calls
HF: DIIS                            :      0.033u      0.000s      0.019w      7 calls
HF: Form C                          :      0.000u      0.000s      0.002w      7 calls

--------------------------------------------------------------------------------------
DFH: sparsity prep                  :      0.000u      0.000s      0.004w      1 calls
| Libint2ERI::Libint2ERI            :      0.000u      0.000s      0.002w      1 calls
DFH: initialize()                   :      0.017u      0.000s      0.010w      1 calls
| Libint2ERI::Libint2ERI            :      0.000u      0.000s      0.001w      2 calls
| DFH: AO Construction              :      0.017u      0.000s      0.001w      1 calls
| DFH: AO-Met. Contraction          :      0.000u      0.000s      0.000w      1 calls
HF: Form core H                     :      0.000u      0.000s      0.001w      1 calls
HF: Form S/X                        :      0.000u      0.000s      0.000w      1 calls
HF: Guess                           :      0.050u      0.000s      0.030w      1 calls
| SAD Guess                         :      0.050u      0.000s      0.028w      1 calls
HF: Form G                          :      0.000u      0.000s      0.001w      8 calls
| JK: D                             :      0.000u      0.000s      0.000w      8 calls
[...]
Grad: JK                            :      0.283u      0.000s      0.270w     10 calls
| JKGrad: Amn                       :      0.083u      0.000s      0.038w     10 calls
| | Libint2ERI::Libint2ERI          :      0.017u      0.000s      0.007w     10 calls
| JKGrad: Awmn                      :      0.000u      0.000s      0.000w     10 calls
| JKGrad: AB                        :      0.050u      0.000s      0.058w     10 calls
| | Libint2ERI::Libint2ERI          :      0.000u      0.000s      0.000w     10 calls
| JKGrad: UV                        :      0.000u      0.000s      0.001w     10 calls
| JKGrad: ABx                       :      0.067u      0.000s      0.023w     10 calls
| | Libint2ERI::Libint2ERI          :      0.000u      0.000s      0.000w     10 calls
| JKGrad: Amnx                      :      0.067u      0.000s      0.043w     10 calls
| | Libint2ERI::Libint2ERI          :      0.033u      0.000s      0.006w     10 calls
Grad: XC                            :      0.000u      0.000s      0.000w     10 calls

**************************************************************************************

Host: sophon

Timers On : Sun Feb  5 18:23:46 2023
Timers Off: Sun Feb  5 18:57:26 2023

Wall Time:     2019.61 seconds

                                                       Time (seconds)
Module                                       User      System        Wall        Calls
DFH: sparsity prep                  :      3.133u      0.033s      1.976w   1250 calls
Libint2ERI::Libint2ERI              :      0.250u      0.000s      0.207w   4107 calls
DFH: initialize()                   :     11.567u      0.067s      6.992w   1250 calls
DFH: AO Construction                :      0.167u      0.000s      0.099w   1250 calls
DFH: AO-Met. Contraction            :      0.000u      0.000s      0.012w   1250 calls
HF: Form core H                     :      0.883u      0.033s      3.300w   1301 calls
HF: Form S/X                        :      0.300u      0.000s      0.120w   1301 calls
HF: Guess                           :     30.567u      0.617s     18.716w   1301 calls
SAD Guess                           :     27.283u      0.367s     16.567w   1301 calls
HF: Form G                          :      0.717u      0.000s      0.427w   5361 calls
JK: D                               :      0.017u      0.000s      0.019w   5361 calls
JK: USO2AO                          :      0.067u      0.000s      0.064w   5361 calls
JK: JK                              :      0.517u      0.000s      0.240w   5361 calls
DFH: compute_JK()                   :      0.417u      0.000s      0.221w   5125 calls
DFH: Grabbing AOs                   :      0.000u      0.000s      0.004w   5125 calls
DFH: compute_J                      :      0.100u      0.000s      0.035w   5125 calls
DFH: compute_K                      :      0.033u      0.000s      0.028w   5125 calls
PK computes JK                      :      0.017u      0.000s      0.001w    236 calls
JK: AO2USO                          :      0.017u      0.000s      0.023w   5361 calls
HF: Form F                          :      0.083u      0.000s      0.035w   5361 calls
HF: Form D                          :      0.000u      0.000s      0.021w   5361 calls
HF: DIIS                            :     17.417u      0.400s     10.941w   4060 calls
HF: Form C                          :      1.350u      0.017s      0.953w   4060 calls
DFMP2 Singles                       :      0.000u      0.000s      0.002w    102 calls
DFMP2 Aia                           :      0.383u      0.000s      0.412w    102 calls
DFMP2 (A|mn)                        :      0.000u      0.000s      0.008w    102 calls
DFMP2 (A|mn)C_mi                    :      0.000u      0.000s      0.000w    153 calls
DFMP2 (A|mi)C_na                    :      0.000u      0.000s      0.001w    153 calls
DFMP2 Aia Write                     :      0.000u      0.000s      0.002w    153 calls
DFMP2 Bia                           :      0.667u      0.033s      0.562w    102 calls
DFMP2 Metric                        :      0.633u      0.017s      0.354w    102 calls
DFMP2 Aia Read                      :      0.000u      0.000s      0.007w    153 calls
DFMP2 (ia|A)(A|Q)                   :      0.000u      0.000s      0.001w    153 calls
DFMP2 Bia Write                     :      0.000u      0.000s      0.002w    153 calls
DFMP2 Energy                        :      0.117u      0.000s      0.397w    102 calls
DFMP2 Bia Read                      :      0.000u      0.000s      0.001w    408 calls
Total PK formation time             :      0.267u      0.000s      0.176w     51 calls
FNOCC: Initializing Integrals       :      0.000u      0.000s      0.005w     51 calls
FNOCC: Two Elec Int Trans.          :      0.100u      0.067s      0.620w     51 calls
FNOCC: CC energy                    :      0.750u      1.450s      1.776w     51 calls
FNOCC: triples                      :      0.067u      0.033s      0.046w     51 calls

--------------------------------------------------------------------------------------
DFH: sparsity prep                  :      3.133u      0.033s      1.976w   1250 calls
| Libint2ERI::Libint2ERI            :      0.183u      0.000s      0.096w   1250 calls
DFH: initialize()                   :     11.567u      0.067s      6.992w   1250 calls
| Libint2ERI::Libint2ERI            :      0.067u      0.000s      0.095w   2500 calls
| DFH: AO Construction              :      0.167u      0.000s      0.099w   1250 calls
| DFH: AO-Met. Contraction          :      0.000u      0.000s      0.012w   1250 calls
HF: Form core H                     :      0.883u      0.033s      3.300w   1301 calls
HF: Form S/X                        :      0.300u      0.000s      0.120w   1301 calls
HF: Guess                           :     30.567u      0.617s     18.716w   1301 calls
| SAD Guess                         :     27.283u      0.367s     16.567w   1301 calls
HF: Form G                          :      0.717u      0.000s      0.427w   5361 calls
| JK: D                             :      0.017u      0.000s      0.019w   5361 calls
| JK: USO2AO                        :      0.067u      0.000s      0.064w   5361 calls
| JK: JK                            :      0.517u      0.000s      0.240w   5361 calls
| | DFH: compute_JK()               :      0.417u      0.000s      0.221w   5125 calls
| | | DFH: Grabbing AOs             :      0.000u      0.000s      0.004w   5125 calls
| | | DFH: compute_J                :      0.100u      0.000s      0.035w   5125 calls
| | | DFH: compute_K                :      0.033u      0.000s      0.028w   5125 calls
| | PK computes JK                  :      0.017u      0.000s      0.001w    236 calls
| JK: AO2USO                        :      0.017u      0.000s      0.023w   5361 calls
HF: Form F                          :      0.083u      0.000s      0.035w   5361 calls
HF: Form D                          :      0.000u      0.000s      0.021w   5361 calls
HF: DIIS                            :     17.417u      0.400s     10.941w   4060 calls
HF: Form C                          :      1.350u      0.017s      0.953w   4060 calls
DFMP2 Singles                       :      0.000u      0.000s      0.002w    102 calls
DFMP2 Aia                           :      0.383u      0.000s      0.412w    102 calls
| Libint2ERI::Libint2ERI            :      0.000u      0.000s      0.005w    102 calls
| DFMP2 (A|mn)                      :      0.000u      0.000s      0.008w    102 calls
| DFMP2 (A|mn)C_mi                  :      0.000u      0.000s      0.000w    153 calls
| DFMP2 (A|mi)C_na                  :      0.000u      0.000s      0.001w    153 calls
| DFMP2 Aia Write                   :      0.000u      0.000s      0.002w    153 calls
DFMP2 Bia                           :      0.667u      0.033s      0.562w    102 calls
| DFMP2 Metric                      :      0.633u      0.017s      0.354w    102 calls
| | Libint2ERI::Libint2ERI          :      0.000u      0.000s      0.002w    102 calls
| DFMP2 Aia Read                    :      0.000u      0.000s      0.007w    153 calls
| DFMP2 (ia|A)(A|Q)                 :      0.000u      0.000s      0.001w    153 calls
| DFMP2 Bia Write                   :      0.000u      0.000s      0.002w    153 calls
DFMP2 Energy                        :      0.117u      0.000s      0.397w    102 calls
| DFMP2 Bia Read                    :      0.000u      0.000s      0.001w    408 calls
Total PK formation time             :      0.267u      0.000s      0.176w     51 calls
| Libint2ERI::Libint2ERI            :      0.000u      0.000s      0.007w    102 calls
Libint2ERI::Libint2ERI              :      0.000u      0.000s      0.003w     51 calls
FNOCC: Initializing Integrals       :      0.000u      0.000s      0.005w     51 calls
FNOCC: Two Elec Int Trans.          :      0.100u      0.067s      0.620w     51 calls
FNOCC: CC energy                    :      0.750u      1.450s      1.776w     51 calls
| FNOCC: triples                    :      0.067u      0.033s      0.046w     51 calls

**************************************************************************************


Host: sophon
Host: sophon


Timers On : Sun Feb  5 18:26:17 2023
Timers On : Sun Feb  5 18:57:30 2023
Timers Off: Sun Feb  5 18:58:01 2023
Timers Off: Sun Feb  5 18:58:01 2023

Wall Time:     1903.87 seconds

                                                       Time (seconds)

Wall Time:       31.35 seconds

Module                                       User      System        Wall        Calls
                                                       Time (seconds)
Module                                       User      System        Wall        Calls
DFH: sparsity prep                  :      0.000u      0.017s      0.018w      7 calls
DFH: sparsity prep                  :      0.300u      0.000s      0.159w    101 calls
Libint2ERI::Libint2ERI              :      0.000u      0.017s      0.017w     41 calls
Libint2ERI::Libint2ERI              :      0.017u      0.000s      0.014w    303 calls
DFH: initialize()                   :      0.117u      0.000s      0.062w      7 calls
DFH: initialize()                   :      0.883u      0.000s      0.555w    101 calls
DFH: AO Construction                :      0.000u      0.000s      0.007w      7 calls
DFH: AO Construction                :      0.000u      0.000s      0.008w    101 calls
DFH: AO-Met. Contraction            :      0.000u      0.000s      0.001w      7 calls
DFH: AO-Met. Contraction            :      0.017u      0.000s      0.001w    101 calls
HF: Form core H                     :      0.000u      0.000s      0.039w      7 calls
HF: Form core H                     :      0.117u      0.000s      0.147w    101 calls
HF: Form S/X                        :      0.000u      0.000s      0.001w      7 calls
HF: Form S/X                        :      0.033u      0.017s      0.010w    101 calls
HF: Guess                           :      0.150u      0.000s      0.094w      7 calls
HF: Guess                           :      2.150u      0.017s      1.394w    101 calls
SAD Guess                           :      0.117u      0.000s      0.087w      3 calls
SAD Guess                           :      1.917u      0.000s      1.234w    101 calls
HF: Form G                          :      0.017u      0.000s      0.008w     65 calls
HF: Form G                          :      0.017u      0.000s      0.027w    392 calls
JK: D                               :      0.000u      0.000s      0.000w     65 calls
JK: D                               :      0.000u      0.000s      0.001w    392 calls
JK: USO2AO                          :      0.000u      0.000s      0.001w     65 calls
JK: USO2AO                          :      0.000u      0.000s      0.004w    392 calls
JK: JK                              :      0.017u      0.000s      0.005w     65 calls
JK: JK                              :      0.000u      0.000s      0.015w    392 calls
DFH: compute_JK()                   :      0.017u      0.000s      0.005w     65 calls
DFH: compute_JK()                   :      0.000u      0.000s      0.014w    392 calls
DFH: Grabbing AOs                   :      0.000u      0.000s      0.000w     65 calls
DFH: Grabbing AOs                   :      0.000u      0.000s      0.000w    392 calls
DFH: compute_J                      :      0.000u      0.000s      0.001w     65 calls
DFH: compute_J                      :      0.000u      0.000s      0.002w    392 calls
DFH: compute_K                      :      0.000u      0.000s      0.002w     65 calls
DFH: compute_K                      :      0.000u      0.000s      0.002w    392 calls
JK: AO2USO                          :      0.000u      0.000s      0.000w     65 calls
JK: AO2USO                          :      0.017u      0.000s      0.001w    392 calls
HF: Form F                          :      0.000u      0.000s      0.000w     65 calls
HF: Form D                          :      0.000u      0.000s      0.000w     65 calls
HF: Form F                          :      0.000u      0.000s      0.002w    392 calls
HF: DIIS                            :      0.267u      0.017s      0.141w     62 calls
HF: Form D                          :      0.000u      0.000s      0.001w    392 calls
HF: Form C                          :      0.000u      0.000s      0.015w     62 calls
HF: DIIS                            :      1.050u      0.017s      0.658w    291 calls
Grad: V T Perturb                   :      0.000u      0.000s      0.001w      5 calls
HF: Form C                          :      0.150u      0.000s      0.064w    291 calls
Grad: S                             :      0.000u      0.000s      0.000w      5 calls

--------------------------------------------------------------------------------------
Grad: JK                            :      0.100u      0.000s      0.084w      5 calls
JKGrad: Amn                         :      0.000u      0.000s      0.016w      5 calls
DFH: sparsity prep                  :      0.300u      0.000s      0.159w    101 calls
JKGrad: Awmn                        :      0.000u      0.000s      0.000w      5 calls
| JKGrad: AB                          :      0.067u      0.000s      0.028w      5 calls
Libint2ERI::Libint2ERI            :      0.017u      0.000s      0.007w    101 calls
JKGrad: UV                          :      0.000u      0.000s      0.001w      5 calls
JKGrad: ABx                         :      0.017u      0.000s      0.011w      5 calls
DFH: initialize()                   :      0.883u      0.000s      0.555w    101 calls
JKGrad: Amnx                        :      0.017u      0.000s      0.021w      5 calls
| Grad: XC                            :      0.000u      0.000s      0.000w      5 calls

--------------------------------------------------------------------------------------
Libint2ERI::Libint2ERI            :      0.000u      0.000s      0.007w    202 calls
DFH: sparsity prep                  :      0.000u      0.017s      0.018w      7 calls
| | DFH: AO Construction              :      0.000u      0.000s      0.008w    101 calls
Libint2ERI::Libint2ERI            :      0.000u      0.017s      0.007w      7 calls
| DFH: initialize()                   :      0.117u      0.000s      0.062w      7 calls
DFH: AO-Met. Contraction          :      0.017u      0.000s      0.001w    101 calls
| Libint2ERI::Libint2ERI            :      0.000u      0.000s      0.005w     14 calls
HF: Form core H                     :      0.117u      0.000s      0.147w    101 calls
| DFH: AO Construction              :      0.000u      0.000s      0.007w      7 calls
HF: Form S/X                        :      0.033u      0.017s      0.010w    101 calls
| HF: Guess                           :      2.150u      0.017s      1.394w    101 calls
DFH: AO-Met. Contraction          :      0.000u      0.000s      0.001w      7 calls
| HF: Form core H                     :      0.000u      0.000s      0.039w      7 calls
SAD Guess                         :      1.917u      0.000s      1.234w    101 calls
HF: Form S/X                        :      0.000u      0.000s      0.001w      7 calls
HF: Form G                          :      0.017u      0.000s      0.027w    392 calls
HF: Guess                           :      0.150u      0.000s      0.094w      7 calls
| | JK: D                             :      0.000u      0.000s      0.001w    392 calls
SAD Guess                         :      0.117u      0.000s      0.087w      3 calls
| HF: Form G                          :      0.017u      0.000s      0.008w     65 calls
JK: USO2AO                        :      0.000u      0.000s      0.004w    392 calls
| | JK: D                             :      0.000u      0.000s      0.000w     65 calls
| JK: JK                            :      0.000u      0.000s      0.015w    392 calls
JK: USO2AO                        :      0.000u      0.000s      0.001w     65 calls
| | | DFH: compute_JK()               :      0.000u      0.000s      0.014w    392 calls
JK: JK                            :      0.017u      0.000s      0.005w     65 calls
| | | | | DFH: Grabbing AOs             :      0.000u      0.000s      0.000w    392 calls
DFH: compute_JK()               :      0.017u      0.000s      0.005w     65 calls
| | | | | | DFH: compute_J                :      0.000u      0.000s      0.002w    392 calls
DFH: Grabbing AOs             :      0.000u      0.000s      0.000w     65 calls
| | | | | | DFH: compute_K                :      0.000u      0.000s      0.002w    392 calls
DFH: compute_J                :      0.000u      0.000s      0.001w     65 calls
| | | | JK: AO2USO                        :      0.017u      0.000s      0.001w    392 calls
DFH: compute_K                :      0.000u      0.000s      0.002w     65 calls
| HF: Form F                          :      0.000u      0.000s      0.002w    392 calls
JK: AO2USO                        :      0.000u      0.000s      0.000w     65 calls
HF: Form D                          :      0.000u      0.000s      0.001w    392 calls
HF: Form F                          :      0.000u      0.000s      0.000w     65 calls
HF: DIIS                            :      1.050u      0.017s      0.658w    291 calls
HF: Form D                          :      0.000u      0.000s      0.000w     65 calls
HF: Form C                          :      0.150u      0.000s      0.064w    291 calls
HF: DIIS                            :      0.267u      0.017s      0.141w     62 calls

**************************************************************************************
HF: Form C                          :      0.000u      0.000s      0.015w     62 calls
Grad: V T Perturb                   :      0.000u      0.000s      0.001w      5 calls
Grad: S                             :      0.000u      0.000s      0.000w      5 calls
Grad: JK                            :      0.100u      0.000s      0.084w      5 calls
| JKGrad: Amn                       :      0.000u      0.000s      0.016w      5 calls
| | Libint2ERI::Libint2ERI          :      0.000u      0.000s      0.003w      5 calls
| JKGrad: Awmn                      :      0.000u      0.000s      0.000w      5 calls
| JKGrad: AB                        :      0.067u      0.000s      0.028w      5 calls
| | Libint2ERI::Libint2ERI          :      0.000u      0.000s      0.000w      5 calls
| JKGrad: UV                        :      0.000u      0.000s      0.001w      5 calls
| JKGrad: ABx                       :      0.017u      0.000s      0.011w      5 calls
| | Libint2ERI::Libint2ERI          :      0.000u      0.000s      0.000w      5 calls
| JKGrad: Amnx                      :      0.017u      0.000s      0.021w      5 calls
| | Libint2ERI::Libint2ERI          :      0.000u      0.000s      0.003w      5 calls
Grad: XC                            :      0.000u      0.000s      0.000w      5 calls

**************************************************************************************
