[Molden Format]

[FREQ]
        1737.3783265931
        3987.6271465390
        4144.4667462164

[FR-COORD]
O         -0.0908078057       -0.0672346015        0.0000000000
H         -0.1623116221        1.7259916969        0.0000000000
H          1.6034973959       -0.6589297804        0.0000000000

[FR-NORM-COORD]
vibration 1
          -0.0600615687       -0.0444699176       -0.0000000000
           0.7036077397        0.0462996961        0.0000000000
           0.2496129408        0.6594701668        0.0000000000
vibration 2
          -0.0354890016       -0.0262762838        0.0000000000
          -0.0833777251        0.7014795341       -0.0000000000
           0.6466139341       -0.2844558421       -0.0000000000
vibration 3
           0.0437196462       -0.0590482176        0.0000000000
          -0.0280968971        0.7046354801       -0.0000000000
          -0.6657656149        0.2325025831       -0.0000000000
